version 2
run Throughput1-0-20160412-14:04:20-2308
attr configname Throughput1
attr datetime 20160412-14:04:20
attr experiment Throughput1
attr inifile omnetpp.ini
attr iterationvars ""
attr iterationvars2 $repetition=0
attr measurement ""
attr network Network
attr processid 2308
attr repetition 0
attr replication #0
attr resultdir results
attr runnumber 0
attr seedset 0

vector 9  Network.PremiumUser.wlan.mac.ctn[0]  state:vector  ETV
attr interpolationmode  none
attr source  stateChanged
attr title  "contention state, vector"
vector 27  Network.ap.wlanNic1.mac.ctn[0]  state:vector  ETV
attr interpolationmode  none
attr source  stateChanged
attr title  "contention state, vector"
vector 36  Network.ap.wlanNic2.mac.ctn[0]  state:vector  ETV
attr interpolationmode  none
attr source  stateChanged
attr title  "contention state, vector"
vector 45  Network.ap.wlanNic3.mac.ctn[0]  state:vector  ETV
attr interpolationmode  none
attr source  stateChanged
attr title  "contention state, vector"
vector 55  Network.StandardUser.wlan.mac.ctn[0]  state:vector  ETV
attr interpolationmode  none
attr source  stateChanged
attr title  "contention state, vector"
vector 65  Network.Sensor.wlan.mac.ctn[0]  state:vector  ETV
attr interpolationmode  none
attr source  stateChanged
attr title  "contention state, vector"
vector 5  Network.PremiumUser.wlan.radio  radioMode:vector  ETV
attr interpolationmode  sample-hold
attr source  radioModeChanged
attr title  "Radio mode, vector"
vector 8  Network.PremiumUser.wlan.radio  radioChannel:vector  ETV
attr interpolationmode  sample-hold
attr source  radioChannelChanged
attr title  "Radio channel, vector"
vector 23  Network.ap.wlanNic1.radio  radioMode:vector  ETV
attr interpolationmode  sample-hold
attr source  radioModeChanged
attr title  "Radio mode, vector"
vector 26  Network.ap.wlanNic1.radio  radioChannel:vector  ETV
attr interpolationmode  sample-hold
attr source  radioChannelChanged
attr title  "Radio channel, vector"
vector 32  Network.ap.wlanNic2.radio  radioMode:vector  ETV
attr interpolationmode  sample-hold
attr source  radioModeChanged
attr title  "Radio mode, vector"
vector 35  Network.ap.wlanNic2.radio  radioChannel:vector  ETV
attr interpolationmode  sample-hold
attr source  radioChannelChanged
attr title  "Radio channel, vector"
vector 41  Network.ap.wlanNic3.radio  radioMode:vector  ETV
attr interpolationmode  sample-hold
attr source  radioModeChanged
attr title  "Radio mode, vector"
vector 44  Network.ap.wlanNic3.radio  radioChannel:vector  ETV
attr interpolationmode  sample-hold
attr source  radioChannelChanged
attr title  "Radio channel, vector"
vector 51  Network.StandardUser.wlan.radio  radioMode:vector  ETV
attr interpolationmode  sample-hold
attr source  radioModeChanged
attr title  "Radio mode, vector"
vector 54  Network.StandardUser.wlan.radio  radioChannel:vector  ETV
attr interpolationmode  sample-hold
attr source  radioChannelChanged
attr title  "Radio channel, vector"
vector 61  Network.Sensor.wlan.radio  radioMode:vector  ETV
attr interpolationmode  sample-hold
attr source  radioModeChanged
attr title  "Radio mode, vector"
vector 64  Network.Sensor.wlan.radio  radioChannel:vector  ETV
attr interpolationmode  sample-hold
attr source  radioChannelChanged
attr title  "Radio channel, vector"
vector 6  Network.PremiumUser.wlan.radio  receptionState:vector  ETV
attr interpolationmode  sample-hold
attr source  receptionStateChanged
attr title  "Radio reception state, vector"
vector 24  Network.ap.wlanNic1.radio  receptionState:vector  ETV
attr interpolationmode  sample-hold
attr source  receptionStateChanged
attr title  "Radio reception state, vector"
vector 33  Network.ap.wlanNic2.radio  receptionState:vector  ETV
attr interpolationmode  sample-hold
attr source  receptionStateChanged
attr title  "Radio reception state, vector"
vector 42  Network.ap.wlanNic3.radio  receptionState:vector  ETV
attr interpolationmode  sample-hold
attr source  receptionStateChanged
attr title  "Radio reception state, vector"
vector 52  Network.StandardUser.wlan.radio  receptionState:vector  ETV
attr interpolationmode  sample-hold
attr source  receptionStateChanged
attr title  "Radio reception state, vector"
vector 62  Network.Sensor.wlan.radio  receptionState:vector  ETV
attr interpolationmode  sample-hold
attr source  receptionStateChanged
attr title  "Radio reception state, vector"
vector 14  Network.ap.cli2  sentPk:vector(packetBytes)  ETV
attr interpolationmode  none
attr source  sentPk
attr title  "packets sent, vector(packetBytes)"
vector 30  Network.ap.wlanNic2.mac  rcvdPkFromHL:vector(packetBytes)  ETV
attr interpolationmode  none
attr source  packetReceivedFromUpper
attr title  "packets received from higher layer, vector(packetBytes)"
vector 29  Network.ap.wlanNic2.mac  sentDownPk:vector(packetBytes)  ETV
attr interpolationmode  none
attr source  packetSentToLower
attr title  "packets sent to lower layer, vector(packetBytes)"
vector 34  Network.ap.wlanNic2.radio  transmissionState:vector  ETV
attr interpolationmode  sample-hold
attr source  transmissionStateChanged
attr title  "Radio transmission state, vector"
vector 11  Network.ap.cli1  sentPk:vector(packetBytes)  ETV
attr interpolationmode  none
attr source  sentPk
attr title  "packets sent, vector(packetBytes)"
vector 21  Network.ap.wlanNic1.mac  rcvdPkFromHL:vector(packetBytes)  ETV
attr interpolationmode  none
attr source  packetReceivedFromUpper
attr title  "packets received from higher layer, vector(packetBytes)"
vector 17  Network.ap.cli3  sentPk:vector(packetBytes)  ETV
attr interpolationmode  none
attr source  sentPk
attr title  "packets sent, vector(packetBytes)"
vector 22  Network.ap.wlanNic1.mac  rcvdPkFromLL:vector(packetBytes)  ETV
attr interpolationmode  none
attr source  packetReceivedFromLower
attr title  "packets received from lower layer, vector(packetBytes)"
vector 40  Network.ap.wlanNic3.mac  rcvdPkFromLL:vector(packetBytes)  ETV
attr interpolationmode  none
attr source  packetReceivedFromLower
attr title  "packets received from lower layer, vector(packetBytes)"
vector 50  Network.StandardUser.wlan.mac  rcvdPkFromLL:vector(packetBytes)  ETV
attr interpolationmode  none
attr source  packetReceivedFromLower
attr title  "packets received from lower layer, vector(packetBytes)"
vector 60  Network.Sensor.wlan.mac  rcvdPkFromLL:vector(packetBytes)  ETV
attr interpolationmode  none
attr source  packetReceivedFromLower
attr title  "packets received from lower layer, vector(packetBytes)"
vector 4  Network.PremiumUser.wlan.mac  rcvdPkFromLL:vector(packetBytes)  ETV
attr interpolationmode  none
attr source  packetReceivedFromLower
attr title  "packets received from lower layer, vector(packetBytes)"
vector 1  Network.PremiumUser.wlan.mac  passedUpPk:vector(packetBytes)  ETV
attr interpolationmode  none
attr source  packetSentToUpper
attr title  "packets passed to higher layer, vector(packetBytes)"
vector 0  Network.PremiumUser.sink  rcvdPk:vector(packetBytes)  ETV
attr interpolationmode  none
attr source  rcvdPk
attr title  "packets received, vector(packetBytes)"
vector 2  Network.PremiumUser.wlan.mac  sentDownPk:vector(packetBytes)  ETV
attr interpolationmode  none
attr source  packetSentToLower
attr title  "packets sent to lower layer, vector(packetBytes)"
vector 7  Network.PremiumUser.wlan.radio  transmissionState:vector  ETV
attr interpolationmode  sample-hold
attr source  transmissionStateChanged
attr title  "Radio transmission state, vector"
vector 31  Network.ap.wlanNic2.mac  rcvdPkFromLL:vector(packetBytes)  ETV
attr interpolationmode  none
attr source  packetReceivedFromLower
attr title  "packets received from lower layer, vector(packetBytes)"
vector 20  Network.ap.wlanNic1.mac  sentDownPk:vector(packetBytes)  ETV
attr interpolationmode  none
attr source  packetSentToLower
attr title  "packets sent to lower layer, vector(packetBytes)"
vector 25  Network.ap.wlanNic1.radio  transmissionState:vector  ETV
attr interpolationmode  sample-hold
attr source  transmissionStateChanged
attr title  "Radio transmission state, vector"
vector 47  Network.StandardUser.wlan.mac  passedUpPk:vector(packetBytes)  ETV
attr interpolationmode  none
attr source  packetSentToUpper
attr title  "packets passed to higher layer, vector(packetBytes)"
vector 46  Network.StandardUser.sink  rcvdPk:vector(packetBytes)  ETV
attr interpolationmode  none
attr source  rcvdPk
attr title  "packets received, vector(packetBytes)"
vector 48  Network.StandardUser.wlan.mac  sentDownPk:vector(packetBytes)  ETV
attr interpolationmode  none
attr source  packetSentToLower
attr title  "packets sent to lower layer, vector(packetBytes)"
vector 53  Network.StandardUser.wlan.radio  transmissionState:vector  ETV
attr interpolationmode  sample-hold
attr source  transmissionStateChanged
attr title  "Radio transmission state, vector"
vector 57  Network.Sensor.wlan.mac  passedUpPk:vector(packetBytes)  ETV
attr interpolationmode  none
attr source  packetSentToUpper
attr title  "packets passed to higher layer, vector(packetBytes)"
vector 56  Network.Sensor.sink  rcvdPk:vector(packetBytes)  ETV
attr interpolationmode  none
attr source  rcvdPk
attr title  "packets received, vector(packetBytes)"
vector 58  Network.Sensor.wlan.mac  sentDownPk:vector(packetBytes)  ETV
attr interpolationmode  none
attr source  packetSentToLower
attr title  "packets sent to lower layer, vector(packetBytes)"
vector 63  Network.Sensor.wlan.radio  transmissionState:vector  ETV
attr interpolationmode  sample-hold
attr source  transmissionStateChanged
attr title  "Radio transmission state, vector"
0	163	0.011380762899	1300
0	358	0.022746288697	1300
0	724	0.043316955673	1300
0	919	0.054802481471	1300
0	1686	0.094748746585	1300
0	1889	0.106274272383	1300
0	2774	0.156045221715	1300
0	3132	0.176315888691	1300
0	3494	0.196786555667	1300
0	3927	0.218902538425	1300
0	4130	0.230448064223	1300
1	161	0.011380762899	1336
1	356	0.022746288697	1336
1	722	0.043316955673	1336
1	917	0.054802481471	1336
1	1684	0.094748746585	1336
1	1887	0.106274272383	1336
1	2772	0.156045221715	1336
1	3130	0.176315888691	1336
1	3492	0.196786555667	1336
1	3925	0.218902538425	1336
1	4128	0.230448064223	1336
2	164	0.011390762899	14
2	359	0.022756288697	14
2	725	0.043326955673	14
2	920	0.054812481471	14
2	1687	0.094758746585	14
2	1890	0.106284272383	14
2	2775	0.156055221715	14
2	3133	0.176325888691	14
2	3495	0.196796555667	14
2	3928	0.218912538425	14
2	4131	0.230458064223	14
4	161	0.011380762899	1336
4	356	0.022746288697	1336
4	523	0.031931814495	1036
4	551	0.03224606916	14
4	722	0.043316955673	1336
4	917	0.054802481471	1336
4	1084	0.063748007269	1036
4	1112	0.064062261934	14
4	1251	0.072613148447	1036
4	1271	0.072927403112	14
4	1418	0.081578289625	1036
4	1438	0.08189254429	14
4	1489	0.083363430803	136
4	1519	0.083678169712	14
4	1684	0.094748746585	1336
4	1887	0.106274272383	1336
4	2054	0.115159798181	1036
4	2074	0.115474052846	14
4	2217	0.124344939359	1036
4	2241	0.124659194024	14
4	2433	0.135690080537	1336
4	2570	0.144720080537	1036
4	2602	0.145034335202	14
4	2772	0.156045221715	1336
4	2927	0.164970747513	1036
4	2959	0.165285002178	14
4	3130	0.176315888691	1336
4	3297	0.185461414489	1036
4	3321	0.185775669154	14
4	3492	0.196786555667	1336
4	3567	0.198672081465	136
4	3593	0.198986820374	14
4	3734	0.207617397247	1036
4	3754	0.207931651912	14
4	3925	0.218902538425	1336
4	4128	0.230448064223	1336
5	0	0	0
5	0	0	2
5	165	0.011390762899	3
5	183	0.011694762899	2
5	360	0.022756288697	3
5	382	0.023060288697	2
5	726	0.043326955673	3
5	744	0.043630955673	2
5	921	0.054812481471	3
5	947	0.055116481471	2
5	1688	0.094758746585	3
5	1714	0.095062746585	2
5	1891	0.106284272383	3
5	1909	0.106588272383	2
5	2776	0.156055221715	3
5	2790	0.156359221715	2
5	3134	0.176325888691	3
5	3152	0.176629888691	2
5	3496	0.196796555667	3
5	3518	0.197100555667	2
5	3929	0.218912538425	3
5	3951	0.219216538425	2
5	4132	0.230458064223	3
6	0	0	1
6	13	0.000500762899	3
6	160	0.011380762899	1
6	165	0.011390762899	0
6	183	0.011694762899	1
6	202	0.011866288697	3
6	355	0.022746288697	1
6	360	0.022756288697	0
6	382	0.023060288697	1
6	401	0.023451814495	3
6	522	0.031931814495	1
6	528	0.03194206916	3
6	550	0.03224606916	1
6	566	0.032436955673	3
6	721	0.043316955673	1
6	726	0.043326955673	0
6	744	0.043630955673	1
6	763	0.043922481471	3
6	916	0.054802481471	1
6	921	0.054812481471	0
6	947	0.055116481471	1
6	966	0.055268007269	3
6	1083	0.063748007269	1
6	1089	0.063758261934	3
6	1111	0.064062261934	1
6	1127	0.064133148447	3
6	1250	0.072613148447	1
6	1256	0.072623403112	3
6	1270	0.072927403112	1
6	1294	0.073098289625	3
6	1417	0.081578289625	1
6	1423	0.08158854429	3
6	1437	0.08189254429	1
6	1461	0.082083430803	3
6	1488	0.083363430803	1
6	1497	0.083374169712	3
6	1518	0.083678169712	1
6	1528	0.083868746585	3
6	1683	0.094748746585	1
6	1688	0.094758746585	0
6	1714	0.095062746585	1
6	1733	0.095394272383	3
6	1886	0.106274272383	1
6	1891	0.106284272383	0
6	1909	0.106588272383	1
6	1928	0.106679798181	3
6	2053	0.115159798181	1
6	2059	0.115170052846	3
6	2073	0.115474052846	1
6	2093	0.115864939359	3
6	2216	0.124344939359	1
6	2222	0.124355194024	3
6	2240	0.124659194024	1
6	2264	0.124810080537	3
6	2432	0.135690080537	1
6	2452	0.136240080537	3
6	2569	0.144720080537	1
6	2575	0.144730335202	3
6	2601	0.145034335202	1
6	2617	0.145165221715	3
6	2771	0.156045221715	1
6	2776	0.156055221715	0
6	2790	0.156359221715	1
6	2809	0.156490747513	3
6	2926	0.164970747513	1
6	2932	0.164981002178	3
6	2958	0.165285002178	1
6	2974	0.165435888691	3
6	3129	0.176315888691	1
6	3134	0.176325888691	0
6	3152	0.176629888691	1
6	3171	0.176981414489	3
6	3296	0.185461414489	1
6	3302	0.185471669154	3
6	3320	0.185775669154	1
6	3336	0.185906555667	3
6	3491	0.196786555667	1
6	3496	0.196796555667	0
6	3518	0.197100555667	1
6	3537	0.197392081465	3
6	3566	0.198672081465	1
6	3575	0.198682820374	3
6	3592	0.198986820374	1
6	3610	0.199137397247	3
6	3733	0.207617397247	1
6	3739	0.207627651912	3
6	3753	0.207931651912	1
6	3777	0.208022538425	3
6	3924	0.218902538425	1
6	3929	0.218912538425	0
6	3951	0.219216538425	1
6	3974	0.219568064223	3
6	4127	0.230448064223	1
6	4132	0.230458064223	0
7	165	0.011390762899	1
7	166	0.011390762899	2
7	182	0.011694762899	1
7	183	0.011694762899	0
7	360	0.022756288697	1
7	361	0.022756288697	2
7	381	0.023060288697	1
7	382	0.023060288697	0
7	726	0.043326955673	1
7	727	0.043326955673	2
7	743	0.043630955673	1
7	744	0.043630955673	0
7	921	0.054812481471	1
7	922	0.054812481471	2
7	946	0.055116481471	1
7	947	0.055116481471	0
7	1688	0.094758746585	1
7	1689	0.094758746585	2
7	1713	0.095062746585	1
7	1714	0.095062746585	0
7	1891	0.106284272383	1
7	1892	0.106284272383	2
7	1908	0.106588272383	1
7	1909	0.106588272383	0
7	2776	0.156055221715	1
7	2777	0.156055221715	2
7	2789	0.156359221715	1
7	2790	0.156359221715	0
7	3134	0.176325888691	1
7	3135	0.176325888691	2
7	3151	0.176629888691	1
7	3152	0.176629888691	0
7	3496	0.196796555667	1
7	3497	0.196796555667	2
7	3517	0.197100555667	1
7	3518	0.197100555667	0
7	3929	0.218912538425	1
7	3930	0.218912538425	2
7	3950	0.219216538425	1
7	3951	0.219216538425	0
7	4132	0.230458064223	1
7	4133	0.230458064223	2
7	4149	0.230762064223	1
8	0	0	0
9	0	0	0
9	0	0	0
9	0	0	0
9	0	0	0
9	13	0.000500762899	0
9	13	0.000500762899	0
9	160	0.011380762899	0
9	160	0.011380762899	0
9	165	0.011390762899	0
9	165	0.011390762899	0
9	183	0.011694762899	0
9	183	0.011694762899	0
9	202	0.011866288697	0
9	202	0.011866288697	0
9	355	0.022746288697	0
9	355	0.022746288697	0
9	360	0.022756288697	0
9	360	0.022756288697	0
9	382	0.023060288697	0
9	382	0.023060288697	0
9	401	0.023451814495	0
9	401	0.023451814495	0
9	522	0.031931814495	0
9	522	0.031931814495	0
9	523	0.031931814495	0
9	523	0.031931814495	0
9	550	0.03224606916	0
9	550	0.03224606916	0
9	566	0.032436955673	0
9	566	0.032436955673	0
9	721	0.043316955673	0
9	721	0.043316955673	0
9	726	0.043326955673	0
9	726	0.043326955673	0
9	744	0.043630955673	0
9	744	0.043630955673	0
9	763	0.043922481471	0
9	763	0.043922481471	0
9	916	0.054802481471	0
9	916	0.054802481471	0
9	921	0.054812481471	0
9	921	0.054812481471	0
9	947	0.055116481471	0
9	947	0.055116481471	0
9	966	0.055268007269	0
9	966	0.055268007269	0
9	1083	0.063748007269	0
9	1083	0.063748007269	0
9	1084	0.063748007269	0
9	1084	0.063748007269	0
9	1111	0.064062261934	0
9	1111	0.064062261934	0
9	1127	0.064133148447	0
9	1127	0.064133148447	0
9	1250	0.072613148447	0
9	1250	0.072613148447	0
9	1251	0.072613148447	0
9	1251	0.072613148447	0
9	1270	0.072927403112	0
9	1270	0.072927403112	0
9	1294	0.073098289625	0
9	1294	0.073098289625	0
9	1417	0.081578289625	0
9	1417	0.081578289625	0
9	1418	0.081578289625	0
9	1418	0.081578289625	0
9	1437	0.08189254429	0
9	1437	0.08189254429	0
9	1461	0.082083430803	0
9	1461	0.082083430803	0
9	1488	0.083363430803	0
9	1488	0.083363430803	0
9	1489	0.083363430803	0
9	1489	0.083363430803	0
9	1518	0.083678169712	0
9	1518	0.083678169712	0
9	1528	0.083868746585	0
9	1528	0.083868746585	0
9	1683	0.094748746585	0
9	1683	0.094748746585	0
9	1688	0.094758746585	0
9	1688	0.094758746585	0
9	1714	0.095062746585	0
9	1714	0.095062746585	0
9	1733	0.095394272383	0
9	1733	0.095394272383	0
9	1886	0.106274272383	0
9	1886	0.106274272383	0
9	1891	0.106284272383	0
9	1891	0.106284272383	0
9	1909	0.106588272383	0
9	1909	0.106588272383	0
9	1928	0.106679798181	0
9	1928	0.106679798181	0
9	2053	0.115159798181	0
9	2053	0.115159798181	0
9	2054	0.115159798181	0
9	2054	0.115159798181	0
9	2073	0.115474052846	0
9	2073	0.115474052846	0
9	2093	0.115864939359	0
9	2093	0.115864939359	0
9	2216	0.124344939359	0
9	2216	0.124344939359	0
9	2217	0.124344939359	0
9	2217	0.124344939359	0
9	2240	0.124659194024	0
9	2240	0.124659194024	0
9	2264	0.124810080537	0
9	2264	0.124810080537	0
9	2432	0.135690080537	0
9	2432	0.135690080537	0
9	2433	0.135690080537	0
9	2433	0.135690080537	0
9	2452	0.136240080537	0
9	2452	0.136240080537	0
9	2569	0.144720080537	0
9	2569	0.144720080537	0
9	2570	0.144720080537	0
9	2570	0.144720080537	0
9	2601	0.145034335202	0
9	2601	0.145034335202	0
9	2617	0.145165221715	0
9	2617	0.145165221715	0
9	2771	0.156045221715	0
9	2771	0.156045221715	0
9	2776	0.156055221715	0
9	2776	0.156055221715	0
9	2790	0.156359221715	0
9	2790	0.156359221715	0
9	2809	0.156490747513	0
9	2809	0.156490747513	0
9	2926	0.164970747513	0
9	2926	0.164970747513	0
9	2927	0.164970747513	0
9	2927	0.164970747513	0
9	2958	0.165285002178	0
9	2958	0.165285002178	0
9	2974	0.165435888691	0
9	2974	0.165435888691	0
9	3129	0.176315888691	0
9	3129	0.176315888691	0
9	3134	0.176325888691	0
9	3134	0.176325888691	0
9	3152	0.176629888691	0
9	3152	0.176629888691	0
9	3171	0.176981414489	0
9	3171	0.176981414489	0
9	3296	0.185461414489	0
9	3296	0.185461414489	0
9	3297	0.185461414489	0
9	3297	0.185461414489	0
9	3320	0.185775669154	0
9	3320	0.185775669154	0
9	3336	0.185906555667	0
9	3336	0.185906555667	0
9	3491	0.196786555667	0
9	3491	0.196786555667	0
9	3496	0.196796555667	0
9	3496	0.196796555667	0
9	3518	0.197100555667	0
9	3518	0.197100555667	0
9	3537	0.197392081465	0
9	3537	0.197392081465	0
9	3566	0.198672081465	0
9	3566	0.198672081465	0
9	3567	0.198672081465	0
9	3567	0.198672081465	0
9	3592	0.198986820374	0
9	3592	0.198986820374	0
9	3610	0.199137397247	0
9	3610	0.199137397247	0
9	3733	0.207617397247	0
9	3733	0.207617397247	0
9	3734	0.207617397247	0
9	3734	0.207617397247	0
9	3753	0.207931651912	0
9	3753	0.207931651912	0
9	3777	0.208022538425	0
9	3777	0.208022538425	0
9	3924	0.218902538425	0
9	3924	0.218902538425	0
9	3929	0.218912538425	0
9	3929	0.218912538425	0
9	3951	0.219216538425	0
9	3951	0.219216538425	0
9	3974	0.219568064223	0
9	3974	0.219568064223	0
9	4127	0.230448064223	0
9	4127	0.230448064223	0
9	4132	0.230458064223	0
9	4132	0.230458064223	0
11	14	0.001	1000
11	26	0.002	1000
11	38	0.003	1000
11	50	0.004	1000
11	63	0.005	1000
11	78	0.006	1000
11	90	0.007	1000
11	102	0.008	1000
11	114	0.009	1000
11	127	0.01	1000
11	142	0.011	1000
11	203	0.012	1000
11	215	0.013	1000
11	227	0.014	1000
11	240	0.015	1000
11	255	0.016	1000
11	267	0.017	1000
11	279	0.018	1000
11	291	0.019	1000
11	304	0.02	1000
11	319	0.021	1000
11	333	0.022	1000
11	368	0.023	1000
11	406	0.024	1000
11	419	0.025	1000
11	434	0.026	1000
11	446	0.027	1000
11	458	0.028	1000
11	470	0.029	1000
11	483	0.03	1000
11	498	0.031	1000
11	532	0.032	1000
11	572	0.033	1000
11	585	0.034	1000
11	598	0.035	1000
11	613	0.036	1000
11	625	0.037	1000
11	637	0.038	1000
11	649	0.039	1000
11	662	0.04	1000
11	677	0.041	1000
11	690	0.042	1000
11	703	0.043	1000
11	764	0.044	1000
11	777	0.045	1000
11	792	0.046	1000
11	804	0.047	1000
11	816	0.048	1000
11	828	0.049	1000
11	841	0.05	1000
11	856	0.051	1000
11	868	0.052	1000
11	880	0.053	1000
11	894	0.054	1000
11	929	0.055	1000
11	971	0.056	1000
11	983	0.057	1000
11	995	0.058	1000
11	1007	0.059	1000
11	1020	0.06	1000
11	1035	0.061	1000
11	1047	0.062	1000
11	1059	0.063	1000
11	1094	0.064	1000
11	1134	0.065	1000
11	1150	0.066	1000
11	1162	0.067	1000
11	1174	0.068	1000
11	1186	0.069	1000
11	1199	0.07	1000
11	1214	0.071	1000
11	1226	0.072	1000
11	1278	0.073	1000
11	1300	0.074	1000
11	1314	0.075	1000
11	1329	0.076	1000
11	1341	0.077	1000
11	1353	0.078	1000
11	1365	0.079	1000
11	1378	0.08	1000
11	1393	0.081	1000
11	1445	0.082	1000
11	1468	0.083	1000
11	1529	0.084	1000
11	1542	0.085	1000
11	1557	0.086	1000
11	1569	0.087	1000
11	1581	0.088	1000
11	1593	0.089	1000
11	1606	0.09	1000
11	1621	0.091	1000
11	1635	0.092	1000
11	1647	0.093	1000
11	1661	0.094	1000
11	1697	0.095	1000
11	1738	0.096	1000
11	1750	0.097	1000
11	1762	0.098	1000
11	1774	0.099	1000
11	1787	0.1	1000
11	1802	0.101	1000
11	1814	0.102	1000
11	1826	0.103	1000
11	1838	0.104	1000
11	1852	0.105	1000
11	1868	0.106	1000
11	1929	0.107	1000
11	1941	0.108	1000
11	1953	0.109	1000
11	1966	0.11	1000
11	1981	0.111	1000
11	1993	0.112	1000
11	2005	0.113	1000
11	2017	0.114	1000
11	2030	0.115	1000
11	2094	0.116	1000
11	2108	0.117	1000
11	2120	0.118	1000
11	2132	0.119	1000
11	2145	0.12	1000
11	2160	0.121	1000
11	2172	0.122	1000
11	2184	0.123	1000
11	2196	0.124	1000
11	2267	0.125	1000
11	2284	0.126	1000
11	2296	0.127	1000
11	2308	0.128	1000
11	2320	0.129	1000
11	2333	0.13	1000
11	2348	0.131	1000
11	2360	0.132	1000
11	2372	0.133	1000
11	2393	0.134	1000
11	2408	0.135	1000
11	2435	0.136	1000
11	2457	0.137	1000
11	2469	0.138	1000
11	2481	0.139	1000
11	2494	0.14	1000
11	2509	0.141	1000
11	2521	0.142	1000
11	2533	0.143	1000
11	2545	0.144	1000
11	2581	0.145	1000
11	2623	0.146	1000
11	2635	0.147	1000
11	2647	0.148	1000
11	2659	0.149	1000
11	2672	0.15	1000
11	2687	0.151	1000
11	2699	0.152	1000
11	2711	0.153	1000
11	2723	0.154	1000
11	2737	0.155	1000
11	2753	0.156	1000
11	2814	0.157	1000
11	2826	0.158	1000
11	2838	0.159	1000
11	2851	0.16	1000
11	2866	0.161	1000
11	2878	0.162	1000
11	2890	0.163	1000
11	2902	0.164	1000
11	2937	0.165	1000
11	2979	0.166	1000
11	2993	0.167	1000
11	3005	0.168	1000
11	3017	0.169	1000
11	3030	0.17	1000
11	3045	0.171	1000
11	3057	0.172	1000
11	3069	0.173	1000
11	3081	0.174	1000
11	3095	0.175	1000
11	3111	0.176	1000
11	3172	0.177	1000
11	3184	0.178	1000
11	3196	0.179	1000
11	3209	0.18	1000
11	3224	0.181	1000
11	3236	0.182	1000
11	3248	0.183	1000
11	3260	0.184	1000
11	3273	0.185	1000
11	3337	0.186	1000
11	3351	0.187	1000
11	3363	0.188	1000
11	3375	0.189	1000
11	3388	0.19	1000
11	3403	0.191	1000
11	3415	0.192	1000
11	3427	0.193	1000
11	3439	0.194	1000
11	3452	0.195	1000
11	3469	0.196	1000
11	3503	0.197	1000
11	3542	0.198	1000
11	3594	0.199	1000
11	3616	0.2	1000
11	3631	0.201	1000
11	3643	0.202	1000
11	3655	0.203	1000
11	3667	0.204	1000
11	3680	0.205	1000
11	3695	0.206	1000
11	3708	0.207	1000
11	3761	0.208	1000
11	3784	0.209	1000
11	3797	0.21	1000
11	3812	0.211	1000
11	3824	0.212	1000
11	3836	0.213	1000
11	3848	0.214	1000
11	3861	0.215	1000
11	3876	0.216	1000
11	3888	0.217	1000
11	3902	0.218	1000
11	3936	0.219	1000
11	3976	0.22	1000
11	3991	0.221	1000
11	4003	0.222	1000
11	4015	0.223	1000
11	4027	0.224	1000
11	4040	0.225	1000
11	4055	0.226	1000
11	4067	0.227	1000
11	4079	0.228	1000
11	4092	0.229	1000
11	4106	0.23	1000
14	1	0.0005	1300
14	15	0.001	1300
14	22	0.0015	1300
14	27	0.002	1300
14	34	0.0025	1300
14	39	0.003	1300
14	46	0.0035	1300
14	51	0.004	1300
14	58	0.0045	1300
14	64	0.005	1300
14	74	0.0055	1300
14	79	0.006	1300
14	86	0.0065	1300
14	91	0.007	1300
14	98	0.0075	1300
14	103	0.008	1300
14	110	0.0085	1300
14	115	0.009	1300
14	122	0.0095	1300
14	128	0.01	1300
14	138	0.0105	1300
14	143	0.011	1300
14	172	0.0115	1300
14	204	0.012	1300
14	211	0.0125	1300
14	216	0.013	1300
14	223	0.0135	1300
14	228	0.014	1300
14	235	0.0145	1300
14	241	0.015	1300
14	251	0.0155	1300
14	256	0.016	1300
14	263	0.0165	1300
14	268	0.017	1300
14	275	0.0175	1300
14	280	0.018	1300
14	287	0.0185	1300
14	292	0.019	1300
14	299	0.0195	1300
14	305	0.02	1300
14	315	0.0205	1300
14	320	0.021	1300
14	328	0.0215	1300
14	334	0.022	1300
14	341	0.0225	1300
14	369	0.023	1300
14	402	0.0235	1300
14	407	0.024	1300
14	414	0.0245	1300
14	420	0.025	1300
14	430	0.0255	1300
14	435	0.026	1300
14	442	0.0265	1300
14	447	0.027	1300
14	454	0.0275	1300
14	459	0.028	1300
14	466	0.0285	1300
14	471	0.029	1300
14	478	0.0295	1300
14	484	0.03	1300
14	494	0.0305	1300
14	499	0.031	1300
14	506	0.0315	1300
14	533	0.032	1300
14	567	0.0325	1300
14	573	0.033	1300
14	581	0.0335	1300
14	586	0.034	1300
14	593	0.0345	1300
14	599	0.035	1300
14	609	0.0355	1300
14	614	0.036	1300
14	621	0.0365	1300
14	626	0.037	1300
14	633	0.0375	1300
14	638	0.038	1300
14	645	0.0385	1300
14	650	0.039	1300
14	657	0.0395	1300
14	663	0.04	1300
14	673	0.0405	1300
14	678	0.041	1300
14	685	0.0415	1300
14	691	0.042	1300
14	699	0.0425	1300
14	704	0.043	1300
14	733	0.0435	1300
14	765	0.044	1300
14	772	0.0445	1300
14	778	0.045	1300
14	788	0.0455	1300
14	793	0.046	1300
14	800	0.0465	1300
14	805	0.047	1300
14	812	0.0475	1300
14	817	0.048	1300
14	824	0.0485	1300
14	829	0.049	1300
14	836	0.0495	1300
14	842	0.05	1300
14	852	0.0505	1300
14	857	0.051	1300
14	864	0.0515	1300
14	869	0.052	1300
14	876	0.0525	1300
14	881	0.053	1300
14	889	0.0535	1300
14	895	0.054	1300
14	902	0.0545	1300
14	930	0.055	1300
14	967	0.0555	1300
14	972	0.056	1300
14	979	0.0565	1300
14	984	0.057	1300
14	991	0.0575	1300
14	996	0.058	1300
14	1003	0.0585	1300
14	1008	0.059	1300
14	1015	0.0595	1300
14	1021	0.06	1300
14	1031	0.0605	1300
14	1036	0.061	1300
14	1043	0.0615	1300
14	1048	0.062	1300
14	1055	0.0625	1300
14	1060	0.063	1300
14	1067	0.0635	1300
14	1095	0.064	1300
14	1128	0.0645	1300
14	1135	0.065	1300
14	1146	0.0655	1300
14	1151	0.066	1300
14	1158	0.0665	1300
14	1163	0.067	1300
14	1170	0.0675	1300
14	1175	0.068	1300
14	1182	0.0685	1300
14	1187	0.069	1300
14	1194	0.0695	1300
14	1200	0.07	1300
14	1210	0.0705	1300
14	1215	0.071	1300
14	1222	0.0715	1300
14	1227	0.072	1300
14	1234	0.0725	1300
14	1279	0.073	1300
14	1295	0.0735	1300
14	1301	0.074	1300
14	1309	0.0745	1300
14	1315	0.075	1300
14	1325	0.0755	1300
14	1330	0.076	1300
14	1337	0.0765	1300
14	1342	0.077	1300
14	1349	0.0775	1300
14	1354	0.078	1300
14	1361	0.0785	1300
14	1366	0.079	1300
14	1373	0.0795	1300
14	1379	0.08	1300
14	1389	0.0805	1300
14	1394	0.081	1300
14	1401	0.0815	1300
14	1446	0.082	1300
14	1462	0.0825	1300
14	1469	0.083	1300
14	1498	0.0835	1300
14	1530	0.084	1300
14	1537	0.0845	1300
14	1543	0.085	1300
14	1553	0.0855	1300
14	1558	0.086	1300
14	1565	0.0865	1300
14	1570	0.087	1300
14	1577	0.0875	1300
14	1582	0.088	1300
14	1589	0.0885	1300
14	1594	0.089	1300
14	1601	0.0895	1300
14	1607	0.09	1300
14	1617	0.0905	1300
14	1622	0.091	1300
14	1629	0.0915	1300
14	1636	0.092	1300
14	1643	0.0925	1300
14	1648	0.093	1300
14	1656	0.0935	1300
14	1662	0.094	1300
14	1669	0.0945	1300
14	1698	0.095	1300
14	1734	0.0955	1300
14	1739	0.096	1300
14	1746	0.0965	1300
14	1751	0.097	1300
14	1758	0.0975	1300
14	1763	0.098	1300
14	1770	0.0985	1300
14	1775	0.099	1300
14	1782	0.0995	1300
14	1788	0.1	1300
14	1798	0.1005	1300
14	1803	0.101	1300
14	1810	0.1015	1300
14	1815	0.102	1300
14	1822	0.1025	1300
14	1827	0.103	1300
14	1834	0.1035	1300
14	1839	0.104	1300
14	1846	0.1045	1300
14	1853	0.105	1300
14	1864	0.1055	1300
14	1869	0.106	1300
14	1899	0.1065	1300
14	1930	0.107	1300
14	1937	0.1075	1300
14	1942	0.108	1300
14	1949	0.1085	1300
14	1954	0.109	1300
14	1961	0.1095	1300
14	1967	0.11	1300
14	1977	0.1105	1300
14	1982	0.111	1300
14	1989	0.1115	1300
14	1994	0.112	1300
14	2001	0.1125	1300
14	2006	0.113	1300
14	2013	0.1135	1300
14	2018	0.114	1300
14	2025	0.1145	1300
14	2031	0.115	1300
14	2081	0.1155	1300
14	2095	0.116	1300
14	2103	0.1165	1300
14	2109	0.117	1300
14	2116	0.1175	1300
14	2121	0.118	1300
14	2128	0.1185	1300
14	2133	0.119	1300
14	2140	0.1195	1300
14	2146	0.12	1300
14	2156	0.1205	1300
14	2161	0.121	1300
14	2168	0.1215	1300
14	2173	0.122	1300
14	2180	0.1225	1300
14	2185	0.123	1300
14	2192	0.1235	1300
14	2197	0.124	1300
14	2226	0.1245	1300
14	2268	0.125	1300
14	2280	0.1255	1300
14	2285	0.126	1300
14	2292	0.1265	1300
14	2297	0.127	1300
14	2304	0.1275	1300
14	2309	0.128	1300
14	2316	0.1285	1300
14	2321	0.129	1300
14	2328	0.1295	1300
14	2334	0.13	1300
14	2344	0.1305	1300
14	2349	0.131	1300
14	2356	0.1315	1300
14	2361	0.132	1300
14	2368	0.1325	1300
14	2373	0.133	1300
14	2387	0.1335	1300
14	2394	0.134	1300
14	2402	0.1345	1300
14	2409	0.135	1300
14	2419	0.1355	1300
14	2436	0.136	1300
14	2453	0.1365	1300
14	2458	0.137	1300
14	2465	0.1375	1300
14	2470	0.138	1300
14	2477	0.1385	1300
14	2482	0.139	1300
14	2489	0.1395	1300
14	2495	0.14	1300
14	2505	0.1405	1300
14	2510	0.141	1300
14	2517	0.1415	1300
14	2522	0.142	1300
14	2529	0.1425	1300
14	2534	0.143	1300
14	2541	0.1435	1300
14	2546	0.144	1300
14	2553	0.1445	1300
14	2582	0.145	1300
14	2618	0.1455	1300
14	2624	0.146	1300
14	2631	0.1465	1300
14	2636	0.147	1300
14	2643	0.1475	1300
14	2648	0.148	1300
14	2655	0.1485	1300
14	2660	0.149	1300
14	2667	0.1495	1300
14	2673	0.15	1300
14	2683	0.1505	1300
14	2688	0.151	1300
14	2695	0.1515	1300
14	2700	0.152	1300
14	2707	0.1525	1300
14	2712	0.153	1300
14	2719	0.1535	1300
14	2724	0.154	1300
14	2731	0.1545	1300
14	2738	0.155	1300
14	2749	0.1555	1300
14	2754	0.156	1300
14	2810	0.1565	1300
14	2815	0.157	1300
14	2822	0.1575	1300
14	2827	0.158	1300
14	2834	0.1585	1300
14	2839	0.159	1300
14	2846	0.1595	1300